/*--------------------------------*- C++ -*----------------------------------*\
| =========                 |                                                 |
| \\      /  F ield         | OpenFOAM: The Open Source CFD Toolbox           |
|  \\    /   O peration     | Version:  v2012                                 |
|   \\  /    A nd           | Website:  www.openfoam.com                      |
|    \\/     M anipulation  |                                                 |
\*---------------------------------------------------------------------------*/
FoamFile
{
    version     2.0;
    format      binary;
    class       volScalarField;
    object      T;
}
// * * * * * * * * * * * * * * * * * * * * * * * * * * * * * * * * * * * * * //

dimensions      [0 0 0 1 0 0 0];

internalField   uniform 300;

boundaryField
{
    bottom
    {
        type           fixedValue;
        value          uniform 1873;
    }

    top
    {
        type           inletOutlet;
        inletValue     $internalField;
        value          $internalField;
    }

    left
    {
        type            zeroGradient;
        value           $internalField;
    }

    right
    {
        type            zeroGradient;
        value           $internalField;
    }

    front 
    {
        type            zeroGradient;
        value           $internalField;
    }
	
	back
    {
        type            zeroGradient;
        value           $internalField;
    }
}

// ************************************************************************* //
